
     Program PWSCF v.6.8 starts on  9Nov2021 at 16:46:39 

     This program is part of the open-source Quantum ESPRESSO suite
     for quantum simulation of materials; please cite
         "P. Giannozzi et al., J. Phys.:Condens. Matter 21 395502 (2009);
         "P. Giannozzi et al., J. Phys.:Condens. Matter 29 465901 (2017);
         "P. Giannozzi et al., J. Chem. Phys. 152 154105 (2020);
          URL http://www.quantum-espresso.org", 
     in publications or presentations arising from this work. More details at
     http://www.quantum-espresso.org/quote

     Parallel version (MPI), running on     6 processors

     MPI processes distributed on     1 nodes
     R & G space division:  proc/nbgrp/npool/nimage =       6
     186 MiB available memory on the printing compute node when the environment starts

     Reading input from sto.scf.in

     Current dimensions of program PWSCF are:
     Max number of different atomic species (ntypx) = 10
     Max number of k-points (npk) =  40000
     Max angular momentum in pseudopotentials (lmaxx) =  4
     file Ti.pz-spn-kjpaw_psl.1.0.0.UPF: wavefunction(s)  3S 3P 3D renormalized
     file Sn.pz-dn-kjpaw_psl.0.2.UPF: wavefunction(s)  5P 4D renormalized
     file O.pz-n-kjpaw_psl.0.1.UPF: wavefunction(s)  2P renormalized

     IMPORTANT: XC functional enforced from input :
     Exchange-correlation= PBE
                           (   1   4   3   4   0   0   0)
     Any further DFT definition will be discarded
     Please, verify this is what you really want

     Message from routine setup:
     using ibrav=0 with symmetry is DISCOURAGED, use correct ibrav instead

     Subspace diagonalization in iterative solution of the eigenvalue problem:
     a serial algorithm will be used


     Parallelization info
     --------------------
     sticks:   dense  smooth     PW     G-vecs:    dense   smooth      PW
     Min         416     139     41                19322     3727     612
     Max         417     142     42                19325     3729     617
     Sum        2501     845    249               115945    22365    3679

     Using Slab Decomposition



     bravais-lattice index     =            0
     lattice parameter (alat)  =       7.2021  a.u.
     unit-cell volume          =     467.6493 (a.u.)^3
     number of atoms/cell      =            5
     number of atomic types    =            3
     number of electrons       =        44.00
     number of Kohn-Sham states=           22
     kinetic-energy cutoff     =      50.0000  Ry
     charge density cutoff     =     600.0000  Ry
     scf convergence threshold =      1.0E-10
     mixing beta               =       0.7000
     number of iterations used =            8  plain     mixing
     Exchange-correlation= PBE
                           (   1   4   3   4   0   0   0)

     celldm(1)=   7.202143  celldm(2)=   0.000000  celldm(3)=   0.000000
     celldm(4)=   0.000000  celldm(5)=   0.000000  celldm(6)=   0.000000

     crystal axes: (cart. coord. in units of alat)
               a(1) = (   1.004540   0.000000   0.000000 )  
               a(2) = (   0.000000   1.004540   0.000000 )  
               a(3) = (   0.000000   0.000000   1.240511 )  

     reciprocal axes: (cart. coord. in units 2 pi/alat)
               b(1) = (  0.995481  0.000000  0.000000 )  
               b(2) = (  0.000000  0.995481  0.000000 )  
               b(3) = (  0.000000  0.000000  0.806119 )  


     PseudoPot. # 1 for Ti read from file:
     ./Ti.pz-spn-kjpaw_psl.1.0.0.UPF
     MD5 check sum: d738bfca771ecfdd01037dc8ee1e6b9b
     Pseudo is Projector augmented-wave + core cor, Zval = 12.0
     Generated using &quot;atomic&quot; code by A. Dal Corso  v.6.2.2
     Shape of augmentation charge: PSQ
     Using radial grid of 1177 points,  6 beta functions with: 
                l(1) =   0
                l(2) =   0
                l(3) =   1
                l(4) =   1
                l(5) =   2
                l(6) =   2
     Q(r) pseudized with 0 coefficients 


     PseudoPot. # 2 for Sn read from file:
     ./Sn.pz-dn-kjpaw_psl.0.2.UPF
     MD5 check sum: 4ae5dc40354335ee230663518864dfb4
     Pseudo is Projector augmented-wave + core cor, Zval = 14.0
     Generated using "atomic" code by A. Dal Corso  v.5.0.2 svn rev. 9415
     Shape of augmentation charge: BESSEL
     Using radial grid of 1243 points,  6 beta functions with: 
                l(1) =   0
                l(2) =   0
                l(3) =   1
                l(4) =   1
                l(5) =   2
                l(6) =   2
     Q(r) pseudized with 0 coefficients 


     PseudoPot. # 3 for O  read from file:
     ./O.pz-n-kjpaw_psl.0.1.UPF
     MD5 check sum: 6b8961753bc530cd482b40fd8ffb4c91
     Pseudo is Projector augmented-wave + core cor, Zval =  6.0
     Generated using "atomic" code by A. Dal Corso  v.5.0.2 svn rev. 9415
     Shape of augmentation charge: BESSEL
     Using radial grid of 1095 points,  4 beta functions with: 
                l(1) =   0
                l(2) =   0
                l(3) =   1
                l(4) =   1
     Q(r) pseudized with 0 coefficients 


     atomic species   valence    mass     pseudopotential
        Ti            12.00    47.86700     Ti( 1.00)
        Sn            14.00   118.71000     Sn( 1.00)
        O              6.00    15.99900     O ( 1.00)

      8 Sym. Ops. (no inversion) found



   Cartesian axes

     site n.     atom                  positions (alat units)
         1           Sn  tau(   1) = (   0.0000000   0.0000000   1.1669814  )
         2           Ti  tau(   2) = (   0.5022700   0.5022700   0.6398993  )
         3           O   tau(   3) = (   0.5022700   0.5022700   0.1874332  )
         4           O   tau(   4) = (   0.5022700   0.0000000   0.7928384  )
         5           O   tau(   5) = (   0.0000000   0.5022700   0.7928384  )

     number of k points=    75
                       cart. coord. in units 2pi/alat
        k(    1) = (   0.0000000   0.0000000   0.0000000), wk =   0.0039062
        k(    2) = (   0.0000000   0.0000000   0.1007649), wk =   0.0078125
        k(    3) = (   0.0000000   0.0000000   0.2015299), wk =   0.0078125
        k(    4) = (   0.0000000   0.0000000   0.3022948), wk =   0.0078125
        k(    5) = (   0.0000000   0.0000000  -0.4030597), wk =   0.0039062
        k(    6) = (   0.0000000   0.1244351   0.0000000), wk =   0.0156250
        k(    7) = (   0.0000000   0.1244351   0.1007649), wk =   0.0312500
        k(    8) = (   0.0000000   0.1244351   0.2015299), wk =   0.0312500
        k(    9) = (   0.0000000   0.1244351   0.3022948), wk =   0.0312500
        k(   10) = (   0.0000000   0.1244351  -0.4030597), wk =   0.0156250
        k(   11) = (   0.0000000   0.2488701   0.0000000), wk =   0.0156250
        k(   12) = (   0.0000000   0.2488701   0.1007649), wk =   0.0312500
        k(   13) = (   0.0000000   0.2488701   0.2015299), wk =   0.0312500
        k(   14) = (   0.0000000   0.2488701   0.3022948), wk =   0.0312500
        k(   15) = (   0.0000000   0.2488701  -0.4030597), wk =   0.0156250
        k(   16) = (   0.0000000   0.3733052   0.0000000), wk =   0.0156250
        k(   17) = (   0.0000000   0.3733052   0.1007649), wk =   0.0312500
        k(   18) = (   0.0000000   0.3733052   0.2015299), wk =   0.0312500
        k(   19) = (   0.0000000   0.3733052   0.3022948), wk =   0.0312500
        k(   20) = (   0.0000000   0.3733052  -0.4030597), wk =   0.0156250
        k(   21) = (   0.0000000  -0.4977403   0.0000000), wk =   0.0078125
        k(   22) = (   0.0000000  -0.4977403   0.1007649), wk =   0.0156250
        k(   23) = (   0.0000000  -0.4977403   0.2015299), wk =   0.0156250
        k(   24) = (   0.0000000  -0.4977403   0.3022948), wk =   0.0156250
        k(   25) = (   0.0000000  -0.4977403  -0.4030597), wk =   0.0078125
        k(   26) = (   0.1244351   0.1244351   0.0000000), wk =   0.0156250
        k(   27) = (   0.1244351   0.1244351   0.1007649), wk =   0.0312500
        k(   28) = (   0.1244351   0.1244351   0.2015299), wk =   0.0312500
        k(   29) = (   0.1244351   0.1244351   0.3022948), wk =   0.0312500
        k(   30) = (   0.1244351   0.1244351  -0.4030597), wk =   0.0156250
        k(   31) = (   0.1244351   0.2488701   0.0000000), wk =   0.0312500
        k(   32) = (   0.1244351   0.2488701   0.1007649), wk =   0.0625000
        k(   33) = (   0.1244351   0.2488701   0.2015299), wk =   0.0625000
        k(   34) = (   0.1244351   0.2488701   0.3022948), wk =   0.0625000
        k(   35) = (   0.1244351   0.2488701  -0.4030597), wk =   0.0312500
        k(   36) = (   0.1244351   0.3733052   0.0000000), wk =   0.0312500
        k(   37) = (   0.1244351   0.3733052   0.1007649), wk =   0.0625000
        k(   38) = (   0.1244351   0.3733052   0.2015299), wk =   0.0625000
        k(   39) = (   0.1244351   0.3733052   0.3022948), wk =   0.0625000
        k(   40) = (   0.1244351   0.3733052  -0.4030597), wk =   0.0312500
        k(   41) = (   0.1244351  -0.4977403   0.0000000), wk =   0.0156250
        k(   42) = (   0.1244351  -0.4977403   0.1007649), wk =   0.0312500
        k(   43) = (   0.1244351  -0.4977403   0.2015299), wk =   0.0312500
        k(   44) = (   0.1244351  -0.4977403   0.3022948), wk =   0.0312500
        k(   45) = (   0.1244351  -0.4977403  -0.4030597), wk =   0.0156250
        k(   46) = (   0.2488701   0.2488701   0.0000000), wk =   0.0156250
        k(   47) = (   0.2488701   0.2488701   0.1007649), wk =   0.0312500
        k(   48) = (   0.2488701   0.2488701   0.2015299), wk =   0.0312500
        k(   49) = (   0.2488701   0.2488701   0.3022948), wk =   0.0312500
        k(   50) = (   0.2488701   0.2488701  -0.4030597), wk =   0.0156250
        k(   51) = (   0.2488701   0.3733052   0.0000000), wk =   0.0312500
        k(   52) = (   0.2488701   0.3733052   0.1007649), wk =   0.0625000
        k(   53) = (   0.2488701   0.3733052   0.2015299), wk =   0.0625000
        k(   54) = (   0.2488701   0.3733052   0.3022948), wk =   0.0625000
        k(   55) = (   0.2488701   0.3733052  -0.4030597), wk =   0.0312500
        k(   56) = (   0.2488701  -0.4977403   0.0000000), wk =   0.0156250
        k(   57) = (   0.2488701  -0.4977403   0.1007649), wk =   0.0312500
        k(   58) = (   0.2488701  -0.4977403   0.2015299), wk =   0.0312500
        k(   59) = (   0.2488701  -0.4977403   0.3022948), wk =   0.0312500
        k(   60) = (   0.2488701  -0.4977403  -0.4030597), wk =   0.0156250
        k(   61) = (   0.3733052   0.3733052   0.0000000), wk =   0.0156250
        k(   62) = (   0.3733052   0.3733052   0.1007649), wk =   0.0312500
        k(   63) = (   0.3733052   0.3733052   0.2015299), wk =   0.0312500
        k(   64) = (   0.3733052   0.3733052   0.3022948), wk =   0.0312500
        k(   65) = (   0.3733052   0.3733052  -0.4030597), wk =   0.0156250
        k(   66) = (   0.3733052  -0.4977403   0.0000000), wk =   0.0156250
        k(   67) = (   0.3733052  -0.4977403   0.1007649), wk =   0.0312500
        k(   68) = (   0.3733052  -0.4977403   0.2015299), wk =   0.0312500
        k(   69) = (   0.3733052  -0.4977403   0.3022948), wk =   0.0312500
        k(   70) = (   0.3733052  -0.4977403  -0.4030597), wk =   0.0156250
        k(   71) = (  -0.4977403  -0.4977403   0.0000000), wk =   0.0039062
        k(   72) = (  -0.4977403  -0.4977403   0.1007649), wk =   0.0078125
        k(   73) = (  -0.4977403  -0.4977403   0.2015299), wk =   0.0078125
        k(   74) = (  -0.4977403  -0.4977403   0.3022948), wk =   0.0078125
        k(   75) = (  -0.4977403  -0.4977403  -0.4030597), wk =   0.0039062

     Dense  grid:   115945 G-vectors     FFT dimensions: (  60,  60,  72)

     Smooth grid:    22365 G-vectors     FFT dimensions: (  36,  36,  45)

     Estimated max dynamical RAM per process >      89.51 MB

     Estimated total dynamical RAM >     537.06 MB

     Check: negative core charge=   -0.000003

     Initial potential from superposition of free atoms

     starting charge   43.99766, renormalised to   44.00000
     Starting wfcs are   31 randomized atomic wfcs
     Checking if some PAW data can be deallocated... 

     total cpu time spent up to now is        2.9 secs

     Self-consistent Calculation

     iteration #  1     ecut=    50.00 Ry     beta= 0.70
     Davidson diagonalization with overlap
     ethr =  1.00E-02,  avg # of iterations =  1.0

     total cpu time spent up to now is        6.0 secs

     total energy              =    -749.55075049 Ry
     estimated scf accuracy    <       2.11899772 Ry

     iteration #  2     ecut=    50.00 Ry     beta= 0.70
     Davidson diagonalization with overlap
     ethr =  4.82E-03,  avg # of iterations = 11.1

     total cpu time spent up to now is       12.6 secs

     total energy              =    -747.40010538 Ry
     estimated scf accuracy    <      23.94548853 Ry

     iteration #  3     ecut=    50.00 Ry     beta= 0.70
     Davidson diagonalization with overlap
     ethr =  4.82E-03,  avg # of iterations =  7.4

     total cpu time spent up to now is       18.2 secs

     total energy              =    -750.66195179 Ry
     estimated scf accuracy    <       0.72788566 Ry

     iteration #  4     ecut=    50.00 Ry     beta= 0.70
     Davidson diagonalization with overlap
     ethr =  1.65E-03,  avg # of iterations =  3.3

     total cpu time spent up to now is       21.5 secs

     total energy              =    -750.81091348 Ry
     estimated scf accuracy    <       0.17942280 Ry

     iteration #  5     ecut=    50.00 Ry     beta= 0.70
     Davidson diagonalization with overlap
     ethr =  4.08E-04,  avg # of iterations =  2.5

     total cpu time spent up to now is       24.5 secs

     total energy              =    -750.78312418 Ry
     estimated scf accuracy    <       0.12859944 Ry

     iteration #  6     ecut=    50.00 Ry     beta= 0.70
     Davidson diagonalization with overlap
     ethr =  2.92E-04,  avg # of iterations =  3.1

     total cpu time spent up to now is       27.7 secs

     total energy              =    -750.79686765 Ry
     estimated scf accuracy    <       0.01913521 Ry

     iteration #  7     ecut=    50.00 Ry     beta= 0.70
     Davidson diagonalization with overlap
     ethr =  4.35E-05,  avg # of iterations =  7.6

     total cpu time spent up to now is       32.5 secs

     total energy              =    -750.80943261 Ry
     estimated scf accuracy    <       0.00923003 Ry

     iteration #  8     ecut=    50.00 Ry     beta= 0.70
     Davidson diagonalization with overlap
     ethr =  2.10E-05,  avg # of iterations =  1.8

     total cpu time spent up to now is       35.3 secs

     total energy              =    -750.80749104 Ry
     estimated scf accuracy    <       0.00625659 Ry

     iteration #  9     ecut=    50.00 Ry     beta= 0.70
     Davidson diagonalization with overlap
     ethr =  1.42E-05,  avg # of iterations =  3.2

     total cpu time spent up to now is       38.6 secs

     total energy              =    -750.80873024 Ry
     estimated scf accuracy    <       0.00052307 Ry

     iteration # 10     ecut=    50.00 Ry     beta= 0.70
     Davidson diagonalization with overlap
     ethr =  1.19E-06,  avg # of iterations =  8.3

     total cpu time spent up to now is       43.9 secs

     total energy              =    -750.80895445 Ry
     estimated scf accuracy    <       0.00068635 Ry

     iteration # 11     ecut=    50.00 Ry     beta= 0.70
     Davidson diagonalization with overlap
     ethr =  1.19E-06,  avg # of iterations =  2.2

     total cpu time spent up to now is       47.4 secs

     total energy              =    -750.80893742 Ry
     estimated scf accuracy    <       0.00018368 Ry

     iteration # 12     ecut=    50.00 Ry     beta= 0.70
     Davidson diagonalization with overlap
     ethr =  4.17E-07,  avg # of iterations =  6.7

     total cpu time spent up to now is       52.9 secs

     total energy              =    -750.80902562 Ry
     estimated scf accuracy    <       0.00004907 Ry

     iteration # 13     ecut=    50.00 Ry     beta= 0.70
     Davidson diagonalization with overlap
     ethr =  1.12E-07,  avg # of iterations =  2.9

     total cpu time spent up to now is       56.4 secs

     total energy              =    -750.80901452 Ry
     estimated scf accuracy    <       0.00003951 Ry

     iteration # 14     ecut=    50.00 Ry     beta= 0.70
     Davidson diagonalization with overlap
     ethr =  8.98E-08,  avg # of iterations =  5.0

     total cpu time spent up to now is       60.6 secs

     total energy              =    -750.80902139 Ry
     estimated scf accuracy    <       0.00000100 Ry

     iteration # 15     ecut=    50.00 Ry     beta= 0.70
     Davidson diagonalization with overlap
     ethr =  2.28E-09,  avg # of iterations =  9.8

     total cpu time spent up to now is       66.3 secs

     total energy              =    -750.80902253 Ry
     estimated scf accuracy    <       0.00000210 Ry

     iteration # 16     ecut=    50.00 Ry     beta= 0.70
     Davidson diagonalization with overlap
     ethr =  2.28E-09,  avg # of iterations =  5.3

     total cpu time spent up to now is       70.4 secs

     total energy              =    -750.80902305 Ry
     estimated scf accuracy    <       0.00000006 Ry

     iteration # 17     ecut=    50.00 Ry     beta= 0.70
     Davidson diagonalization with overlap
     ethr =  1.34E-10,  avg # of iterations = 10.4

     total cpu time spent up to now is       75.8 secs

     total energy              =    -750.80902305 Ry
     estimated scf accuracy    <       0.00000076 Ry

     iteration # 18     ecut=    50.00 Ry     beta= 0.70
     Davidson diagonalization with overlap
     ethr =  1.34E-10,  avg # of iterations =  4.7

     total cpu time spent up to now is       79.2 secs

     total energy              =    -750.80902296 Ry
     estimated scf accuracy    <       0.00000041 Ry

     iteration # 19     ecut=    50.00 Ry     beta= 0.70
     Davidson diagonalization with overlap
     ethr =  1.34E-10,  avg # of iterations =  7.7

     total cpu time spent up to now is       83.9 secs

     total energy              =    -750.80902301 Ry
     estimated scf accuracy    <          5.9E-09 Ry

     iteration # 20     ecut=    50.00 Ry     beta= 0.70
     Davidson diagonalization with overlap
     ethr =  1.34E-11,  avg # of iterations =  8.7

     total cpu time spent up to now is       89.1 secs

     total energy              =    -750.80902302 Ry
     estimated scf accuracy    <          9.3E-09 Ry

     iteration # 21     ecut=    50.00 Ry     beta= 0.70
     Davidson diagonalization with overlap
     ethr =  1.34E-11,  avg # of iterations =  5.3

     total cpu time spent up to now is       92.8 secs

     End of self-consistent calculation

          k = 0.0000 0.0000 0.0000 (  2769 PWs)   bands (ev):

   -47.9546 -24.3799 -24.2052 -24.2052 -11.5234 -11.3888 -11.3887 -11.3859
   -11.3859  -9.4512  -8.0984  -7.7228   3.0995   4.4856   4.4856   6.0019
     6.1957   6.1957   6.2939   6.7890   7.2817   7.2817

          k = 0.0000 0.0000 0.1008 (  2784 PWs)   bands (ev):

   -47.9546 -24.3808 -24.2053 -24.2053 -11.5230 -11.3888 -11.3880 -11.3860
   -11.3860  -9.4354  -8.0988  -7.7267   2.9455   4.4599   4.4599   6.1711
     6.2369   6.2369   6.2816   6.8024   7.2766   7.2766

          k = 0.0000 0.0000 0.2015 (  2796 PWs)   bands (ev):

   -47.9546 -24.3829 -24.2053 -24.2053 -11.5220 -11.3888 -11.3864 -11.3864
   -11.3863  -9.3966  -8.0997  -7.7370   2.6375   4.4016   4.4016   6.2380
     6.2522   6.3364   6.3364   7.1662   7.2607   7.2607

          k = 0.0000 0.0000 0.3023 (  2820 PWs)   bands (ev):

   -47.9546 -24.3850 -24.2053 -24.2053 -11.5210 -11.3888 -11.3867 -11.3867
   -11.3846  -9.3566  -8.1006  -7.7481   2.3850   4.3475   4.3475   6.1109
     6.2233   6.4383   6.4383   7.2381   7.2381   7.7807

          k = 0.0000 0.0000-0.4031 (  2820 PWs)   bands (ev):

   -47.9546 -24.3858 -24.2053 -24.2053 -11.5206 -11.3888 -11.3868 -11.3868
   -11.3839  -9.3397  -8.1009  -7.7530   2.2913   4.3262   4.3262   6.0486
     6.2114   6.4821   6.4821   7.2261   7.2261   8.0920

          k = 0.0000 0.1244 0.0000 (  2775 PWs)   bands (ev):

   -47.9544 -24.3793 -24.2155 -24.2049 -11.5171 -11.3988 -11.3909 -11.3863
   -11.3856  -9.3691  -8.1063  -7.7155   3.0388   4.4480   4.5439   5.5489
     6.1873   6.2428   6.3706   7.0312   7.1068   7.3569

          k = 0.0000 0.1244 0.1008 (  2784 PWs)   bands (ev):

   -47.9544 -24.3802 -24.2155 -24.2049 -11.5168 -11.3992 -11.3909 -11.3857
   -11.3856  -9.3533  -8.1063  -7.7190   2.9009   4.4078   4.5194   5.6797
     6.2236   6.2636   6.3576   7.0113   7.1071   7.4254

          k = 0.0000 0.1244 0.2015 (  2790 PWs)   bands (ev):

   -47.9543 -24.3822 -24.2154 -24.2049 -11.5160 -11.4002 -11.3909 -11.3861
   -11.3840  -9.3143  -8.1065  -7.7278   2.6196   4.3206   4.4633   5.8882
     6.2561   6.3108   6.3705   6.9575   7.1048   7.6998

          k = 0.0000 0.1244 0.3023 (  2804 PWs)   bands (ev):

   -47.9543 -24.3843 -24.2154 -24.2048 -11.5152 -11.4012 -11.3908 -11.3865
   -11.3823  -9.2743  -8.1067  -7.7375   2.3850   4.2412   4.4111   5.9776
     6.1621   6.3993   6.5058   6.8770   7.0974   8.1152

          k = 0.0000 0.1244-0.4031 (  2792 PWs)   bands (ev):

   -47.9543 -24.3850 -24.2153 -24.2048 -11.5149 -11.4016 -11.3908 -11.3866
   -11.3816  -9.2574  -8.1068  -7.7418   2.2972   4.2098   4.3904   5.9846
     6.1266   6.4369   6.5991   6.8145   7.0924   8.3340

          k = 0.0000 0.2489 0.0000 (  2786 PWs)   bands (ev):

   -47.9537 -24.3777 -24.2403 -24.2039 -11.5035 -11.4274 -11.3958 -11.3849
   -11.3802  -9.1496  -8.1491  -7.6965   2.8984   4.3646   4.7160   5.1636
     6.0932   6.2557   6.3768   6.5448   6.7875   8.2050

          k = 0.0000 0.2489 0.1008 (  2786 PWs)   bands (ev):

   -47.9537 -24.3785 -24.2402 -24.2039 -11.5036 -11.4282 -11.3958 -11.3851
   -11.3795  -9.1338  -8.1481  -7.6987   2.7980   4.3131   4.6943   5.2306
     6.1086   6.2596   6.3179   6.6124   6.8085   8.2399

          k = 0.0000 0.2489 0.2015 (  2789 PWs)   bands (ev):

   -47.9537 -24.3804 -24.2401 -24.2039 -11.5037 -11.4303 -11.3958 -11.3855
   -11.3778  -9.0951  -8.1458  -7.7046   2.5836   4.1875   4.6441   5.3807
     6.1219   6.1459   6.3276   6.7482   6.8568   8.3531

          k = 0.0000 0.2489 0.3023 (  2795 PWs)   bands (ev):

   -47.9537 -24.3824 -24.2401 -24.2038 -11.5038 -11.4323 -11.3958 -11.3859
   -11.3762  -9.0555  -8.1432  -7.7113   2.3967   4.0653   4.5966   5.5343
     5.9710   6.1834   6.2985   6.8959   6.9023   8.5011

          k = 0.0000 0.2489-0.4031 (  2794 PWs)   bands (ev):

   -47.9537 -24.3832 -24.2400 -24.2038 -11.5039 -11.4331 -11.3959 -11.3861
   -11.3755  -9.0389  -8.1421  -7.7143   2.3252   4.0161   4.5776   5.6163
     5.8885   6.1992   6.2794   6.9203   6.9579   8.5721

          k = 0.0000 0.3733 0.0000 (  2784 PWs)   bands (ev):

   -47.9530 -24.3758 -24.2651 -24.2029 -11.4946 -11.4507 -11.4006 -11.3842
   -11.3730  -8.8657  -8.2600  -7.6749   2.7716   4.2677   4.9930   5.1339
     5.7755   5.9013   6.2381   6.3436   6.6422   9.0238

          k = 0.0000 0.3733 0.1008 (  2782 PWs)   bands (ev):

   -47.9530 -24.3766 -24.2650 -24.2029 -11.4958 -11.4512 -11.4007 -11.3844
   -11.3723  -8.8499  -8.2578  -7.6762   2.7089   4.2259   4.9755   5.1123
     5.7686   5.7828   6.3175   6.4386   6.6835   8.9871

          k = 0.0000 0.3733 0.2015 (  2789 PWs)   bands (ev):

   -47.9530 -24.3784 -24.2649 -24.2029 -11.4987 -11.4523 -11.4007 -11.3849
   -11.3706  -8.8117  -8.2520  -7.6798   2.5679   4.1019   4.9322   5.1087
     5.5872   5.7614   6.3402   6.7312   6.7746   8.8814

          k = 0.0000 0.3733 0.3023 (  2791 PWs)   bands (ev):

   -47.9530 -24.3803 -24.2647 -24.2029 -11.5017 -11.4531 -11.4008 -11.3853
   -11.3689  -8.7731  -8.2455  -7.6843   2.4386   3.9602   4.8885   5.1605
     5.4263   5.7642   6.3004   6.8565   7.0431   8.7397

          k = 0.0000 0.3733-0.4031 (  2806 PWs)   bands (ev):

   -47.9530 -24.3812 -24.2647 -24.2029 -11.5030 -11.4534 -11.4008 -11.3855
   -11.3682  -8.7570  -8.2425  -7.6865   2.3879   3.8993   4.8704   5.2146
     5.3415   5.7674   6.2768   6.8883   7.1823   8.6644

          k = 0.0000-0.4977 0.0000 (  2776 PWs)   bands (ev):

   -47.9528 -24.3748 -24.2753 -24.2025 -11.4946 -11.4567 -11.4027 -11.3839
   -11.3696  -8.6788  -8.3763  -7.6652   2.7239   4.2319   5.3229   5.3367
     5.3853   5.4904   6.1888   6.3187   6.6232   9.4296

          k = 0.0000-0.4977 0.1008 (  2774 PWs)   bands (ev):

   -47.9528 -24.3756 -24.2753 -24.2024 -11.4966 -11.4566 -11.4027 -11.3841
   -11.3689  -8.6612  -8.3754  -7.6662   2.6776   4.1903   5.2754   5.3456
     5.3485   5.3671   6.3461   6.3527   6.6687   9.3347

          k = 0.0000-0.4977 0.2015 (  2790 PWs)   bands (ev):

   -47.9527 -24.3775 -24.2752 -24.2025 -11.5014 -11.4564 -11.4028 -11.3846
   -11.3672  -8.6180  -8.3731  -7.6691   2.5712   4.0712   5.1583   5.2100
     5.2597   5.3774   6.3512   6.7135   6.7684   9.0953

          k = 0.0000-0.4977 0.3023 (  2786 PWs)   bands (ev):

   -47.9527 -24.3793 -24.2750 -24.2024 -11.5062 -11.4562 -11.4029 -11.3851
   -11.3655  -8.5735  -8.3709  -7.6730   2.4714   3.9297   5.0254   5.1777
     5.1839   5.4067   6.3159   6.8579   7.0798   8.8216

          k = 0.0000-0.4977-0.4031 (  2808 PWs)   bands (ev):

   -47.9527 -24.3802 -24.2751 -24.2025 -11.5082 -11.4561 -11.4029 -11.3853
   -11.3648  -8.5548  -8.3700  -7.6749   2.4317   3.8663   4.9851   5.1548
     5.1697   5.4190   6.2951   6.8927   7.2498   8.6857

          k = 0.1244 0.1244 0.0000 (  2763 PWs)   bands (ev):

   -47.9541 -24.3786 -24.2151 -24.2150 -11.5110 -11.4045 -11.3934 -11.3912
   -11.3840  -9.2889  -8.1097  -7.7091   2.9575   4.4785   4.5296   5.3694
     6.0727   6.3255   6.4265   6.6355   7.2663   7.6399

          k = 0.1244 0.1244 0.1008 (  2780 PWs)   bands (ev):

   -47.9541 -24.3795 -24.2151 -24.2151 -11.5108 -11.4051 -11.3934 -11.3914
   -11.3833  -9.2732  -8.1096  -7.7118   2.8416   4.4278   4.4881   5.4857
     6.0988   6.3058   6.4553   6.6545   7.2515   7.6973

          k = 0.1244 0.1244 0.2015 (  2787 PWs)   bands (ev):

   -47.9541 -24.3815 -24.2150 -24.2150 -11.5101 -11.4066 -11.3934 -11.3919
   -11.3817  -9.2344  -8.1094  -7.7190   2.5959   4.3356   4.3964   5.6838
     6.1391   6.2389   6.5462   6.6928   7.2089   7.9183

          k = 0.1244 0.1244 0.3023 (  2794 PWs)   bands (ev):

   -47.9541 -24.3835 -24.2150 -24.2150 -11.5095 -11.4080 -11.3933 -11.3923
   -11.3802  -9.1946  -8.1091  -7.7270   2.3839   4.2594   4.3140   5.8119
     6.1574   6.1588   6.6672   6.7208   7.1487   8.2454

          k = 0.1244 0.1244-0.4031 (  2796 PWs)   bands (ev):

   -47.9540 -24.3843 -24.2150 -24.2149 -11.5092 -11.4086 -11.3933 -11.3925
   -11.3795  -9.1779  -8.1090  -7.7306   2.3033   4.2299   4.2821   5.8492
     6.1279   6.1612   6.7299   6.7299   7.1129   8.4131

          k = 0.1244 0.2489 0.0000 (  2784 PWs)   bands (ev):

   -47.9534 -24.3770 -24.2398 -24.2141 -11.4980 -11.4290 -11.3994 -11.3920
   -11.3781  -9.0747  -8.1406  -7.6920   2.7715   4.4115   4.6656   5.1106
     5.8711   6.2731   6.3559   6.4979   7.0255   8.3007

          k = 0.1244 0.2489 0.1008 (  2788 PWs)   bands (ev):

   -47.9534 -24.3779 -24.2398 -24.2141 -11.4981 -11.4300 -11.3993 -11.3921
   -11.3775  -9.0593  -8.1397  -7.6934   2.7012   4.3476   4.5951   5.1622
     5.8745   6.3020   6.3898   6.5326   7.0246   8.3154

          k = 0.1244 0.2489 0.2015 (  2794 PWs)   bands (ev):

   -47.9534 -24.3798 -24.2397 -24.2141 -11.4982 -11.4322 -11.3992 -11.3926
   -11.3760  -9.0215  -8.1375  -7.6971   2.5391   4.2106   4.4817   5.2297
     5.8495   6.2544   6.5459   6.6721   7.0129   8.3714

          k = 0.1244 0.2489 0.3023 (  2788 PWs)   bands (ev):

   -47.9534 -24.3817 -24.2396 -24.2140 -11.4983 -11.4344 -11.3991 -11.3930
   -11.3744  -8.9830  -8.1351  -7.7015   2.3870   4.0880   4.4004   5.2791
     5.7850   6.2077   6.6800   6.8329   6.9971   8.4498

          k = 0.1244 0.2489-0.4031 (  2802 PWs)   bands (ev):

   -47.9534 -24.3826 -24.2396 -24.2140 -11.4984 -11.4352 -11.3990 -11.3932
   -11.3738  -8.9668  -8.1340  -7.7035   2.3267   4.0398   4.3713   5.3019
     5.7482   6.1911   6.7439   6.8695   7.0062   8.4873

          k = 0.1244 0.3733 0.0000 (  2782 PWs)   bands (ev):

   -47.9528 -24.3751 -24.2646 -24.2130 -11.4910 -11.4493 -11.4052 -11.3908
   -11.3711  -8.7979  -8.2371  -7.6724   2.6057   4.3054   4.8478   5.1553
     5.4106   6.1576   6.3738   6.4078   6.7253   8.9235

          k = 0.1244 0.3733 0.1008 (  2784 PWs)   bands (ev):

   -47.9528 -24.3759 -24.2645 -24.2131 -11.4921 -11.4499 -11.4051 -11.3910
   -11.3704  -8.7831  -8.2349  -7.6726   2.5735   4.2608   4.7236   5.0667
     5.5015   6.1933   6.3871   6.4691   6.7649   8.8657

          k = 0.1244 0.3733 0.2015 (  2793 PWs)   bands (ev):

   -47.9527 -24.3779 -24.2644 -24.2131 -11.4948 -11.4510 -11.4050 -11.3914
   -11.3689  -8.7470  -8.2293  -7.6736   2.4934   4.1348   4.5532   4.9468
     5.4823   6.2717   6.4575   6.6312   6.8715   8.7144

          k = 0.1244 0.3733 0.3023 (  2787 PWs)   bands (ev):

   -47.9527 -24.3797 -24.2642 -24.2130 -11.4976 -11.4519 -11.4048 -11.3918
   -11.3673  -8.7105  -8.2230  -7.6752   2.4108   3.9921   4.4634   4.8670
     5.3964   6.2764   6.5342   6.7666   7.0771   8.5339

          k = 0.1244 0.3733-0.4031 (  2792 PWs)   bands (ev):

   -47.9527 -24.3805 -24.2642 -24.2130 -11.4988 -11.4523 -11.4047 -11.3919
   -11.3667  -8.6953  -8.2203  -7.6760   2.3762   3.9311   4.4379   4.8413
     5.3585   6.2700   6.5581   6.8043   7.2009   8.4435

          k = 0.1244-0.4977 0.0000 (  2778 PWs)   bands (ev):

   -47.9525 -24.3742 -24.2748 -24.2127 -11.4923 -11.4537 -11.4076 -11.3903
   -11.3677  -8.6138  -8.3477  -7.6633   2.5438   4.2639   5.0092   5.0296
     5.5413   5.7327   6.3840   6.4704   6.6169   9.2042

          k = 0.1244-0.4977 0.1008 (  2784 PWs)   bands (ev):

   -47.9525 -24.3750 -24.2748 -24.2127 -11.4942 -11.4537 -11.4075 -11.3904
   -11.3671  -8.5974  -8.3465  -7.6632   2.5264   4.2254   4.8269   4.9355
     5.6267   5.7984   6.4008   6.5451   6.6610   9.0962

          k = 0.1244-0.4977 0.2015 (  2796 PWs)   bands (ev):

   -47.9525 -24.3769 -24.2747 -24.2126 -11.4986 -11.4537 -11.4073 -11.3908
   -11.3655  -8.5574  -8.3438  -7.6633   2.4813   4.1112   4.5905   4.7940
     5.4391   6.1247   6.4124   6.6809   6.8300   8.8330

          k = 0.1244-0.4977 0.3023 (  2798 PWs)   bands (ev):

   -47.9524 -24.3787 -24.2747 -24.2126 -11.5029 -11.4537 -11.4071 -11.3912
   -11.3640  -8.5164  -8.3411  -7.6641   2.4325   3.9710   4.4585   4.6935
     5.3018   6.2825   6.4012   6.7868   7.1116   8.5443

          k = 0.1244-0.4977-0.4031 (  2796 PWs)   bands (ev):

   -47.9524 -24.3795 -24.2746 -24.2125 -11.5046 -11.4537 -11.4071 -11.3913
   -11.3633  -8.4991  -8.3399  -7.6646   2.4113   3.9077   4.4191   4.6603
     5.2541   6.3216   6.3925   6.8257   7.2676   8.4025

          k = 0.2489 0.2489 0.0000 (  2794 PWs)   bands (ev):

   -47.9528 -24.3754 -24.2388 -24.2388 -11.4870 -11.4414 -11.4078 -11.3973
   -11.3740  -8.8757  -8.1372  -7.6816   2.4809   4.4762   4.6126   4.9957
     5.7552   5.8875   6.4096   6.5801   7.2320   8.4677

          k = 0.2489 0.2489 0.1008 (  2794 PWs)   bands (ev):

   -47.9528 -24.3762 -24.2388 -24.2386 -11.4871 -11.4425 -11.4076 -11.3974
   -11.3733  -8.8615  -8.1361  -7.6808   2.4602   4.3839   4.5368   4.9051
     5.8915   5.9071   6.4147   6.6512   7.2320   8.4311

          k = 0.2489 0.2489 0.2015 (  2788 PWs)   bands (ev):

   -47.9527 -24.3781 -24.2387 -24.2385 -11.4875 -11.4452 -11.4072 -11.3978
   -11.3718  -8.8269  -8.1334  -7.6791   2.4039   4.1962   4.3785   4.7925
     5.9325   5.9364   6.5896   6.8165   7.2305   8.3445

          k = 0.2489 0.2489 0.3023 (  2794 PWs)   bands (ev):

   -47.9527 -24.3800 -24.2387 -24.2384 -11.4878 -11.4479 -11.4067 -11.3981
   -11.3703  -8.7917  -8.1306  -7.6777   2.3391   4.0522   4.2437   4.7226
     5.8399   5.9528   6.8316   6.9743   7.2241   8.2552

          k = 0.2489 0.2489-0.4031 (  2792 PWs)   bands (ev):

   -47.9527 -24.3807 -24.2386 -24.2384 -11.4880 -11.4490 -11.4066 -11.3983
   -11.3697  -8.7769  -8.1295  -7.6772   2.3100   4.0018   4.1929   4.6992
     5.7947   5.9575   6.9291   7.0405   7.2172   8.2159

          k = 0.2489 0.3733 0.0000 (  2792 PWs)   bands (ev):

   -47.9521 -24.3735 -24.2635 -24.2377 -11.4835 -11.4553 -11.4161 -11.3941
   -11.3683  -8.6217  -8.1881  -7.6704   2.2175   4.3302   4.7096   5.0612
     5.4694   5.9589   6.3030   6.4605   7.2971   8.5969

          k = 0.2489 0.3733 0.1008 (  2797 PWs)   bands (ev):

   -47.9521 -24.3743 -24.2634 -24.2377 -11.4844 -11.4560 -11.4158 -11.3942
   -11.3677  -8.6093  -8.1860  -7.6676   2.2261   4.2931   4.6079   4.7893
     5.6173   6.0329   6.3360   6.5638   7.2988   8.4932

          k = 0.2489 0.3733 0.2015 (  2791 PWs)   bands (ev):

   -47.9521 -24.3761 -24.2633 -24.2376 -11.4865 -11.4577 -11.4150 -11.3944
   -11.3662  -8.5794  -8.1810  -7.6607   2.2449   4.1749   4.3715   4.5310
     5.5736   6.0751   6.5966   6.8200   7.3013   8.2481

          k = 0.2489 0.3733 0.3023 (  2794 PWs)   bands (ev):

   -47.9521 -24.3780 -24.2632 -24.2375 -11.4886 -11.4593 -11.4143 -11.3946
   -11.3648  -8.5495  -8.1757  -7.6537   2.2597   4.0194   4.1961   4.3976
     5.4819   6.0183   6.9144   7.0699   7.2969   7.9946

          k = 0.2489 0.3733-0.4031 (  2792 PWs)   bands (ev):

   -47.9521 -24.3786 -24.2632 -24.2375 -11.4895 -11.4600 -11.4140 -11.3947
   -11.3641  -8.5370  -8.1734  -7.6508   2.2644   3.9527   4.1362   4.3544
     5.4429   5.9968   7.0200   7.2258   7.2692   7.8749

          k = 0.2489-0.4977 0.0000 (  2792 PWs)   bands (ev):

   -47.9518 -24.3725 -24.2737 -24.2373 -11.4872 -11.4571 -11.4195 -11.3922
   -11.3653  -8.4482  -8.2777  -7.6650   2.1163   4.2547   4.7470   5.0556
     5.6542   5.7833   6.1466   6.4625   7.3208   8.6318

          k = 0.2489-0.4977 0.1008 (  2796 PWs)   bands (ev):

   -47.9518 -24.3733 -24.2737 -24.2372 -11.4885 -11.4574 -11.4191 -11.3923
   -11.3647  -8.4357  -8.2761  -7.6615   2.1338   4.2341   4.6506   4.7519
     5.6450   6.0155   6.2051   6.5431   7.3230   8.4933

          k = 0.2489-0.4977 0.2015 (  2802 PWs)   bands (ev):

   -47.9518 -24.3752 -24.2737 -24.2372 -11.4918 -11.4582 -11.4182 -11.3924
   -11.3632  -8.4053  -8.2722  -7.6526   2.1766   4.1700   4.3734   4.4481
     5.4568   6.1510   6.5444   6.7888   7.3282   8.1803

          k = 0.2489-0.4977 0.3023 (  2796 PWs)   bands (ev):

   -47.9518 -24.3770 -24.2735 -24.2371 -11.4950 -11.4590 -11.4174 -11.3925
   -11.3618  -8.3747  -8.2683  -7.6436   2.2203   4.0713   4.1248   4.2952
     5.3234   6.0889   6.9768   6.9913   7.3321   7.8718

          k = 0.2489-0.4977-0.4031 (  2800 PWs)   bands (ev):

   -47.9518 -24.3777 -24.2735 -24.2371 -11.4964 -11.4594 -11.4170 -11.3925
   -11.3611  -8.3621  -8.2667  -7.6398   2.2386   4.0176   4.0397   4.2474
     5.2762   6.0673   7.0644   7.1715   7.3280   7.7251

          k = 0.3733 0.3733 0.0000 (  2792 PWs)   bands (ev):

   -47.9514 -24.3715 -24.2624 -24.2623 -11.4787 -11.4701 -11.4267 -11.3858
   -11.3652  -8.4076  -8.1650  -7.6767   1.8597   4.1633   4.7893   5.2252
     5.6428   5.6645   6.1532   6.4194   7.7017   8.1752

          k = 0.3733 0.3733 0.1008 (  2808 PWs)   bands (ev):

   -47.9514 -24.3723 -24.2624 -24.2623 -11.4793 -11.4711 -11.4262 -11.3858
   -11.3645  -8.3990  -8.1630  -7.6695   1.8850   4.1419   4.6927   4.8660
     5.5265   5.9489   6.3901   6.4290   7.7016   8.0256

          k = 0.3733 0.3733 0.2015 (  2807 PWs)   bands (ev):

   -47.9514 -24.3742 -24.2623 -24.2622 -11.4808 -11.4735 -11.4249 -11.3858
   -11.3631  -8.3784  -8.1583  -7.6518   1.9489   4.0856   4.4449   4.4779
     5.4151   5.9145   6.6806   6.8569   7.6984   7.7004

          k = 0.3733 0.3733 0.3023 (  2796 PWs)   bands (ev):

   -47.9514 -24.3759 -24.2622 -24.2621 -11.4822 -11.4758 -11.4237 -11.3858
   -11.3616  -8.3580  -8.1535  -7.6333   2.0168   4.0232   4.1589   4.2930
     5.3737   5.7308   7.0251   7.1895   7.4019   7.6967

          k = 0.3733 0.3733-0.4031 (  2798 PWs)   bands (ev):

   -47.9514 -24.3767 -24.2622 -24.2620 -11.4828 -11.4767 -11.4232 -11.3859
   -11.3610  -8.3497  -8.1515  -7.6255   2.0463   3.9987   4.0542   4.2238
     5.3635   5.6578   7.1700   7.2724   7.3156   7.6930

          k = 0.3733-0.4977 0.0000 (  2812 PWs)   bands (ev):

   -47.9512 -24.3707 -24.2727 -24.2618 -11.4823 -11.4724 -11.4311 -11.3814
   -11.3631  -8.2635  -8.2065  -7.6825   1.7205   4.0727   4.8604   5.3453
     5.6441   5.7490   5.9048   6.4177   7.8249   7.9739

          k = 0.3733-0.4977 0.1008 (  2800 PWs)   bands (ev):

   -47.9512 -24.3714 -24.2726 -24.2618 -11.4832 -11.4731 -11.4305 -11.3814
   -11.3625  -8.2571  -8.2044  -7.6730   1.7496   4.0552   4.7692   4.9679
     5.3912   6.1365   6.1728   6.4385   7.7782   7.8494

          k = 0.3733-0.4977 0.2015 (  2804 PWs)   bands (ev):

   -47.9511 -24.3733 -24.2725 -24.2618 -11.4854 -11.4746 -11.4290 -11.3813
   -11.3611  -8.2418  -8.1994  -7.6496   1.8233   4.0087   4.5301   4.5488
     5.2344   5.9580   6.6980   6.8301   7.4351   7.8334

          k = 0.3733-0.4977 0.3023 (  2798 PWs)   bands (ev):

   -47.9511 -24.3750 -24.2724 -24.2617 -11.4876 -11.4761 -11.4276 -11.3813
   -11.3596  -8.2269  -8.1944  -7.6253   1.9028   3.9557   4.2717   4.3099
     5.1776   5.7581   6.9549   7.1665   7.2523   7.8306

          k = 0.3733-0.4977-0.4031 (  2800 PWs)   bands (ev):

   -47.9511 -24.3757 -24.2724 -24.2617 -11.4884 -11.4767 -11.4270 -11.3813
   -11.3590  -8.2209  -8.1924  -7.6150   1.9378   3.9320   4.1749   4.2256
     5.1609   5.6860   6.8909   7.2912   7.3399   7.8287

          k =-0.4977-0.4977 0.0000 (  2824 PWs)   bands (ev):

   -47.9509 -24.3699 -24.2722 -24.2722 -11.4803 -11.4803 -11.4358 -11.3756
   -11.3618  -8.1766  -8.1766  -7.6991   1.5664   3.9817   4.9906   5.5459
     5.5459   5.7887   5.7887   6.3777   7.6342   8.0044

          k =-0.4977-0.4977 0.1008 (  2816 PWs)   bands (ev):

   -47.9509 -24.3705 -24.2722 -24.2722 -11.4810 -11.4810 -11.4351 -11.3756
   -11.3612  -8.1743  -8.1743  -7.6855   1.5975   3.9654   4.9911   5.1200
     5.1200   6.2352   6.2660   6.2660   7.4416   8.0042

          k =-0.4977-0.4977 0.2015 (  2808 PWs)   bands (ev):

   -47.9509 -24.3723 -24.2721 -24.2721 -11.4828 -11.4828 -11.4335 -11.3755
   -11.3598  -8.1689  -8.1689  -7.6524   1.6764   3.9204   4.7048   4.7048
     4.9921   5.9351   6.8097   6.8097   7.0281   8.0039

          k =-0.4977-0.4977 0.3023 (  2808 PWs)   bands (ev):

   -47.9509 -24.3741 -24.2720 -24.2720 -11.4845 -11.4845 -11.4318 -11.3755
   -11.3583  -8.1634  -8.1634  -7.6189   1.7613   3.8664   4.4386   4.4386
     4.9931   5.6839   6.6611   7.2107   7.2107   8.0036

          k =-0.4977-0.4977-0.4031 (  2784 PWs)   bands (ev):

   -47.9508 -24.3749 -24.2718 -24.2718 -11.4853 -11.4853 -11.4311 -11.3755
   -11.3577  -8.1611  -8.1611  -7.6048   1.7986   3.8411   4.3472   4.3472
     4.9936   5.5917   6.5180   7.3600   7.3600   8.0035

     highest occupied level (ev):     9.4296

!    total energy              =    -750.80902302 Ry

     total all-electron energy =    -14514.173642 Ry
     estimated scf accuracy    <          9.2E-11 Ry

     The total energy is the sum of the following terms:
     one-electron contribution =    -135.31086948 Ry
     hartree contribution      =      86.91133486 Ry
     xc contribution           =     -68.34718417 Ry
     ewald contribution        =    -247.85371142 Ry
     one-center paw contrib.   =    -386.20859280 Ry

     convergence has been achieved in  21 iterations

     Forces acting on atoms (cartesian axes, Ry/au):

     atom    1 type  2   force =     0.00000000    0.00000000   -0.00098468
     atom    2 type  1   force =     0.00000000    0.00000000   -0.00140387
     atom    3 type  3   force =     0.00000000    0.00000000    0.00045108
     atom    4 type  3   force =     0.00000000    0.00000000    0.00096874
     atom    5 type  3   force =     0.00000000    0.00000000    0.00096874

     Total force =     0.002241     Total SCF correction =     0.000026


     Computing stress (Cartesian axis) and pressure

          total   stress  (Ry/bohr**3)                   (kbar)     P=        0.55
   0.00000141   0.00000000   0.00000000            0.21        0.00        0.00
   0.00000000   0.00000141   0.00000000            0.00        0.21        0.00
   0.00000000   0.00000000   0.00000836            0.00        0.00        1.23


     Writing output data file ./SnTiO3.save/

     init_run     :      2.43s CPU      2.64s WALL (       1 calls)
     electrons    :     83.92s CPU     89.83s WALL (       1 calls)
     forces       :      0.96s CPU      1.01s WALL (       1 calls)
     stress       :      2.42s CPU      2.56s WALL (       1 calls)

     Called by init_run:
     wfcinit      :      1.24s CPU      1.33s WALL (       1 calls)
     potinit      :      0.33s CPU      0.37s WALL (       1 calls)
     hinit0       :      0.38s CPU      0.40s WALL (       1 calls)

     Called by electrons:
     c_bands      :     65.21s CPU     67.95s WALL (      21 calls)
     sum_band     :     10.92s CPU     12.81s WALL (      21 calls)
     v_of_rho     :      1.23s CPU      1.28s WALL (      22 calls)
     newd         :      4.27s CPU      5.53s WALL (      22 calls)
     PAW_pot      :      2.35s CPU      2.39s WALL (      22 calls)
     mix_rho      :      0.16s CPU      0.16s WALL (      21 calls)

     Called by c_bands:
     init_us_2    :      0.92s CPU      0.95s WALL (    3375 calls)
     cegterg      :     63.19s CPU     65.87s WALL (    1575 calls)

     Called by *egterg:
     cdiaghg      :      4.89s CPU      5.03s WALL (   10427 calls)
     h_psi        :     42.68s CPU     44.78s WALL (   10502 calls)
     s_psi        :      2.99s CPU      3.11s WALL (   10502 calls)
     g_psi        :      0.12s CPU      0.12s WALL (    8852 calls)

     Called by h_psi:
     h_psi:calbec :      6.13s CPU      6.45s WALL (   10502 calls)
     vloc_psi     :     33.12s CPU     34.75s WALL (   10502 calls)
     add_vuspsi   :      2.95s CPU      3.10s WALL (   10502 calls)

     General routines
     calbec       :      7.67s CPU      8.04s WALL (   12452 calls)
     fft          :      0.66s CPU      0.69s WALL (     309 calls)
     ffts         :      0.02s CPU      0.02s WALL (      43 calls)
     fftw         :     35.16s CPU     36.85s WALL (  258758 calls)
     interpolate  :      0.06s CPU      0.07s WALL (      22 calls)

     Parallel routines

     PWSCF        :   1m30.06s CPU   1m36.49s WALL


   This run was terminated on:  16:48:16   9Nov2021            

=------------------------------------------------------------------------------=
   JOB DONE.
=------------------------------------------------------------------------------=
